# vtk DataFile Version 3.0
vtk output
ASCII
DATASET UNSTRUCTURED_GRID

POINTS 232     float
0.000 0.000 18000.000
0.000 0.000 0.000
0.000 180000.000 18000.000
0.000 180000.000 0.000
180000.000 0.000 0.000
180000.000 0.000 18000.000
180000.000 180000.000 18000.000
180000.000 180000.000 0.000
360000.000 0.000 18000.000
360000.000 0.000 0.000
360000.000 180000.000 18000.000
360000.000 180000.000 0.000
0.000 360000.000 18000.000
0.000 360000.000 0.000
180000.000 360000.000 18000.000
180000.000 360000.000 0.000
360000.000 360000.000 18000.000
360000.000 360000.000 0.000
0.000 45000.000 18000.000
0.000 90000.000 18000.000
0.000 135000.000 18000.000
0.000 45000.000 0.000
0.000 90000.000 0.000
0.000 135000.000 0.000
180000.000 45000.000 18000.000
180000.000 90000.000 18000.000
180000.000 135000.000 18000.000
180000.000 45000.000 0.000
180000.000 90000.000 0.000
180000.000 135000.000 0.000
45000.000 0.000 0.000
90000.000 0.000 0.000
135000.000 0.000 0.000
45000.000 0.000 18000.000
90000.000 0.000 18000.000
135000.000 0.000 18000.000
45000.000 180000.000 0.000
90000.000 180000.000 0.000
135000.000 180000.000 0.000
45000.000 180000.000 18000.000
90000.000 180000.000 18000.000
135000.000 180000.000 18000.000
360000.000 45000.000 18000.000
360000.000 90000.000 18000.000
360000.000 135000.000 18000.000
360000.000 45000.000 0.000
360000.000 90000.000 0.000
360000.000 135000.000 0.000
225000.000 0.000 0.000
270000.000 0.000 0.000
315000.000 0.000 0.000
225000.000 0.000 18000.000
270000.000 0.000 18000.000
315000.000 0.000 18000.000
225000.000 180000.000 0.000
270000.000 180000.000 0.000
315000.000 180000.000 0.000
225000.000 180000.000 18000.000
270000.000 180000.000 18000.000
315000.000 180000.000 18000.000
0.000 225000.000 18000.000
0.000 270000.000 18000.000
0.000 315000.000 18000.000
0.000 225000.000 0.000
0.000 270000.000 0.000
0.000 315000.000 0.000
180000.000 225000.000 18000.000
180000.000 270000.000 18000.000
180000.000 315000.000 18000.000
180000.000 225000.000 0.000
180000.000 270000.000 0.000
180000.000 315000.000 0.000
45000.000 360000.000 0.000
90000.000 360000.000 0.000
135000.000 360000.000 0.000
45000.000 360000.000 18000.000
90000.000 360000.000 18000.000
135000.000 360000.000 18000.000
360000.000 225000.000 18000.000
360000.000 270000.000 18000.000
360000.000 315000.000 18000.000
360000.000 225000.000 0.000
360000.000 270000.000 0.000
360000.000 315000.000 0.000
225000.000 360000.000 0.000
270000.000 360000.000 0.000
315000.000 360000.000 0.000
225000.000 360000.000 18000.000
270000.000 360000.000 18000.000
315000.000 360000.000 18000.000
0.000 22500.000 9000.000
0.000 67500.000 9000.000
180000.000 22500.000 9000.000
180000.000 67500.000 9000.000
22500.000 0.000 9000.000
67500.000 0.000 9000.000
22500.000 180000.000 9000.000
67500.000 180000.000 9000.000
141028.859 112500.000 0.000
36830.125 114473.539 0.000
112309.320 38104.742 0.000
67679.102 38052.117 0.000
90000.000 77942.289 0.000
141732.641 66081.555 0.000
93661.969 127489.078 0.000
42582.012 71813.344 0.000
124143.508 148167.188 0.000
67500.000 152047.766 0.000
147057.719 32942.285 0.000
32942.285 32942.285 0.000
32057.600 148507.344 0.000
68979.797 105912.195 0.000
153733.234 153273.516 0.000
141028.859 112500.000 18000.000
36830.125 114473.539 18000.000
112309.320 38104.742 18000.000
67679.102 38052.117 18000.000
90000.000 77942.289 18000.000
141732.641 66081.555 18000.000
93661.969 127489.078 18000.000
42582.012 71813.344 18000.000
124143.508 148167.188 18000.000
67500.000 152047.766 18000.000
147057.719 32942.285 18000.000
32942.285 32942.285 18000.000
32057.600 148507.344 18000.000
68979.797 105912.195 18000.000
153733.234 153273.516 18000.000
360000.000 22500.000 9000.000
360000.000 67500.000 9000.000
202500.000 0.000 9000.000
202500.000 180000.000 9000.000
322033.656 110759.617 0.000
220626.859 111076.516 0.000
244654.234 35581.781 0.000
321956.281 67584.977 0.000
287143.406 89447.711 0.000
289037.375 138517.250 0.000
289254.750 40235.117 0.000
215036.016 64624.195 0.000
246382.859 147329.188 0.000
257748.109 112073.609 0.000
327057.719 147057.719 0.000
327057.719 32942.285 0.000
212942.281 32942.285 0.000
212671.422 147328.578 0.000
251992.719 73144.586 0.000
322033.656 110759.617 18000.000
220626.859 111076.516 18000.000
244654.234 35581.781 18000.000
321956.281 67584.977 18000.000
287143.406 89447.711 18000.000
289037.375 138517.250 18000.000
289254.750 40235.117 18000.000
215036.016 64624.195 18000.000
246382.859 147329.188 18000.000
257748.109 112073.609 18000.000
327057.719 147057.719 18000.000
327057.719 32942.285 18000.000
212942.281 32942.285 18000.000
212671.422 147328.578 18000.000
251992.719 73144.586 18000.000
0.000 202500.000 9000.000
180000.000 202500.000 9000.000
22500.000 360000.000 9000.000
67500.000 360000.000 9000.000
142033.672 290759.625 0.000
40626.859 291076.500 0.000
64654.230 215581.781 0.000
141956.281 247584.969 0.000
107143.406 269447.719 0.000
109037.367 318517.250 0.000
109254.758 220235.125 0.000
35036.016 244624.188 0.000
66382.859 327329.188 0.000
77748.109 292073.594 0.000
147057.719 327057.719 0.000
147057.719 212942.281 0.000
32942.285 212942.281 0.000
32671.428 327328.562 0.000
71992.719 253144.594 0.000
142033.672 290759.625 18000.000
40626.859 291076.500 18000.000
64654.230 215581.781 18000.000
141956.281 247584.969 18000.000
107143.406 269447.719 18000.000
109037.367 318517.250 18000.000
109254.758 220235.125 18000.000
35036.016 244624.188 18000.000
66382.859 327329.188 18000.000
77748.109 292073.594 18000.000
147057.719 327057.719 18000.000
147057.719 212942.281 18000.000
32942.285 212942.281 18000.000
32671.428 327328.562 18000.000
71992.719 253144.594 18000.000
360000.000 202500.000 9000.000
202500.000 360000.000 9000.000
322033.656 290759.625 0.000
220626.859 291076.500 0.000
244654.234 215581.781 0.000
321956.281 247584.969 0.000
287143.406 269447.719 0.000
289037.375 318517.250 0.000
289254.750 220235.125 0.000
215036.016 244624.188 0.000
246382.859 327329.188 0.000
257748.109 292073.594 0.000
327057.719 327057.719 0.000
212942.281 212942.281 0.000
327057.719 212942.281 0.000
212671.422 327328.562 0.000
251992.719 253144.594 0.000
290759.625 322033.656 18000.000
291076.500 220626.859 18000.000
215581.781 244654.234 18000.000
247584.969 321956.281 18000.000
269447.719 287143.406 18000.000
318517.250 289037.375 18000.000
220235.125 289254.750 18000.000
244624.188 215036.016 18000.000
327329.188 246382.859 18000.000
292073.594 257748.109 18000.000
327057.719 327057.719 18000.000
212942.281 212942.281 18000.000
212942.281 327057.719 18000.000
327328.562 212671.422 18000.000
253144.594 251992.719 18000.000
44140.512 140366.609 8138.117
111345.789 346172.406 9000.000
168350.656 331000.969 9328.196
132507.344 204691.422 9172.173
CELL_TYPES 632
10
10
10
10
10
10
10
10
10
10
10
10
10
10
10
10
10
10
10
10
10
10
10
10
10
10
10
10
10
10
10
10
10
10
10
10
10
10
10
10
10
10
10
10
10
10
10
10
10
10
10
10
10
10
10
10
10
10
10
10
10
10
10
10
10
10
10
10
10
10
10
10
10
10
10
10
10
10
10
10
10
10
10
10
10
10
10
10
10
10
10
10
10
10
10
10
10
10
10
10
10
10
10
10
10
10
10
10
10
10
10
10
10
10
10
10
10
10
10
10
10
10
10
10
10
10
10
10
10
10
10
10
10
10
10
10
10
10
10
10
10
10
10
10
10
10
10
10
10
10
10
10
10
10
10
10
10
10
10
10
10
10
10
10
10
10
10
10
10
10
10
10
10
10
10
10
10
10
10
10
10
10
10
10
10
10
10
10
10
10
10
10
10
10
10
10
10
10
10
10
10
10
10
10
10
10
10
10
10
10
10
10
10
10
10
10
10
10
10
10
10
10
10
10
10
10
10
10
10
10
10
10
10
10
10
10
10
10
10
10
10
10
10
10
10
10
10
10
10
10
10
10
10
10
10
10
10
10
10
10
10
10
10
10
10
10
10
10
10
10
10
10
10
10
10
10
10
10
10
10
10
10
10
10
10
10
10
10
10
10
10
10
10
10
10
10
10
10
10
10
10
10
10
10
10
10
10
10
10
10
10
10
10
10
10
10
10
10
10
10
10
10
10
10
10
10
10
10
10
10
10
10
10
10
10
10
10
10
10
10
10
10
10
10
10
10
10
10
10
10
10
10
10
10
10
10
10
10
10
10
10
10
10
10
10
10
10
10
10
10
10
10
10
10
10
10
10
10
10
10
10
10
10
10
10
10
10
10
10
10
10
10
10
10
10
10
10
10
10
10
10
10
10
10
10
10
10
10
10
10
10
10
10
10
10
10
10
10
10
10
10
10
10
10
10
10
10
10
10
10
10
10
10
10
10
10
10
10
10
10
10
10
10
10
10
10
10
10
10
10
10
10
10
10
10
10
10
10
10
10
10
10
10
10
10
10
10
10
10
10
10
10
10
10
10
10
10
10
10
10
10
10
10
10
10
10
10
10
10
10
10
10
10
10
10
10
10
10
10
10
10
10
10
10
10
10
10
10
10
10
10
10
10
10
10
10
10
10
10
10
10
10
10
10
10
10
10
10
10
10
10
10
10
10
10
10
10
10
10
10
10
10
10
10
10
10
10
10
10
10
10
10
10
10
10
10
10
10
10
10
10
10
10
10
10
10
10
10
10
10
10
10
10
10
10
10
10
10
10
10
10
10
10
10
10
10
10
10
10
10
10
10
10
10
10
10
10
10
10
10
10
10
10
10
10
10
10
10
10
10
10
10
10
10
10
10
10
10
10
10
10
10
10
10
10
10
10
10
10
10
10
10
CELLS 632 3160
4 99 107 110 228
4 30 31 95 101
4 33 34 95 116
4 21 22 91 105
4 1 30 94 109
4 0 33 94 124
4 4 27 92 108
4 3 36 96 110
4 18 19 91 120
4 5 24 92 123
4 2 39 96 125
4 27 28 93 103
4 24 25 93 118
4 1 21 90 109
4 0 18 90 124
4 114 122 125 228
4 36 37 97 107
4 39 40 97 122
4 0 90 94 124
4 1 90 94 109
4 3 96 110 125
4 110 122 125 228
4 2 3 96 125
4 32 35 92 123
4 5 32 35 92
4 32 92 108 123
4 5 35 92 123
4 4 5 32 92
4 107 110 122 228
4 4 32 92 108
4 30 33 95 101
4 33 95 101 116
4 19 22 91 120
4 31 34 100 101
4 31 34 95 101
4 34 100 115 116
4 34 100 101 116
4 34 95 101 116
4 31 32 34 100
4 32 34 35 115
4 22 91 105 120
4 32 34 100 115
4 104 113 117 119
4 103 113 117 118
4 40 106 119 121
4 90 94 109 124
4 25 28 93 103
4 99 107 111 126
4 24 27 93 118
4 19 20 23 114
4 19 22 114 120
4 22 99 105 114
4 3 23 110 125
4 19 22 23 114
4 22 23 99 114
4 100 102 103 115
4 22 105 114 120
4 100 102 115 116
4 100 101 102 116
4 37 104 106 119
4 37 40 106 119
4 2 20 23 125
4 99 110 125 228
4 102 104 113 117
4 98 102 104 113
4 102 103 113 117
4 98 102 103 113
4 2 3 23 125
4 40 107 119 122
4 25 93 103 118
4 101 102 105 116
4 99 114 125 228
4 6 26 112 127
4 37 104 107 119
4 37 40 107 119
4 103 115 117 118
4 38 40 106 121
4 27 93 103 118
4 6 38 112 127
4 25 28 29 98
4 38 40 41 121
4 25 26 29 98
4 30 33 101 109
4 102 105 116 120
4 33 101 109 116
4 25 28 98 103
4 33 109 116 124
4 6 7 38 112
4 6 7 29 112
4 6 26 29 112
4 6 38 41 127
4 32 35 115 123
4 37 38 40 106
4 99 105 111 126
4 32 100 115 123
4 32 100 108 123
4 26 98 112 127
4 102 103 115 117
4 101 105 109 116
4 99 105 114 126
4 109 116 120 124
4 102 105 111 126
4 102 115 116 117
4 106 113 119 121
4 104 107 111 126
4 25 103 113 118
4 102 104 111 126
4 105 114 120 126
4 107 119 122 126
4 105 109 116 120
4 24 27 118 123
4 102 105 120 126
4 102 116 117 120
4 26 29 98 112
4 23 99 110 125
4 20 23 114 125
4 25 26 98 113
4 27 103 108 123
4 104 106 113 119
4 24 27 92 123
4 30 33 94 109
4 104 107 119 126
4 104 117 119 126
4 36 39 97 122
4 23 99 114 125
4 25 98 103 113
4 98 106 112 127
4 27 92 108 123
4 33 94 109 124
4 39 96 110 125
4 36 39 96 110
4 36 97 107 122
4 27 103 118 123
4 39 110 122 125
4 36 39 110 122
4 100 103 115 123
4 106 113 121 127
4 100 103 108 123
4 102 117 120 126
4 98 104 106 113
4 18 90 109 124
4 102 104 117 126
4 36 107 110 122
4 26 98 113 127
4 18 21 90 109
4 103 115 118 123
4 40 97 107 122
4 38 106 112 127
4 0 1 90 94
4 37 40 97 107
4 98 106 113 127
4 38 106 121 127
4 38 41 121 127
4 107 122 126 228
4 114 122 126 228
4 99 107 126 228
4 99 114 126 228
4 18 109 120 124
4 18 21 105 109
4 18 21 91 105
4 18 105 109 120
4 18 91 105 120
4 42 43 129 150
4 45 46 129 135
4 27 28 93 139
4 9 45 128 143
4 4 27 92 144
4 5 24 92 159
4 5 51 130 159
4 8 42 128 158
4 6 57 131 160
4 24 25 93 154
4 4 48 130 144
4 7 54 131 145
4 4 92 130 144
4 5 92 130 159
4 29 131 145 160
4 53 128 143 158
4 26 29 131 160
4 7 29 131 145
4 50 53 128 143
4 8 9 50 128
4 6 7 29 131
4 6 26 131 160
4 9 50 128 143
4 6 26 29 131
4 8 50 53 128
4 8 53 128 158
4 45 129 135 150
4 43 129 135 150
4 42 45 129 150
4 43 135 147 150
4 136 137 141 156
4 43 46 129 135
4 55 56 58 137
4 49 134 138 149
4 141 148 156 161
4 135 136 150 153
4 25 28 29 133
4 43 46 135 147
4 46 132 135 147
4 49 50 52 153
4 25 28 133 139
4 43 44 46 147
4 134 138 149 161
4 132 136 147 152
4 44 46 132 147
4 44 46 47 132
4 56 58 59 152
4 56 58 137 152
4 25 26 29 148
4 49 50 138 153
4 48 49 134 149
4 25 133 139 154
4 49 52 149 153
4 50 52 53 153
4 25 28 93 139
4 133 139 146 154
4 137 140 141 156
4 25 29 133 148
4 49 138 149 153
4 136 151 153 161
4 92 130 144 159
4 25 93 139 154
4 136 138 153 161
4 136 138 146 161
4 25 133 148 154
4 58 140 152 155
4 136 150 151 153
4 132 136 137 152
4 136 147 151 152
4 135 136 138 153
4 48 51 52 149
4 48 49 52 149
4 133 146 148 154
4 138 149 153 161
4 134 138 146 161
4 55 58 137 140
4 136 137 152 156
4 146 148 154 161
4 140 141 148 156
4 136 151 152 156
4 135 136 147 150
4 140 152 155 156
4 133 141 146 148
4 132 135 136 147
4 141 146 148 161
4 11 44 47 142
4 58 137 140 152
4 11 44 142 157
4 140 148 155 156
4 11 56 142 157
4 54 58 140 155
4 54 57 58 155
4 54 55 58 140
4 10 11 44 157
4 56 142 152 157
4 137 140 152 156
4 10 11 56 157
4 136 147 150 151
4 10 56 59 157
4 24 27 93 154
4 56 59 152 157
4 56 137 142 152
4 53 143 153 158
4 133 140 141 148
4 27 93 139 154
4 45 135 150 158
4 42 45 150 158
4 50 53 143 153
4 29 145 148 160
4 44 47 132 142
4 44 132 147 157
4 45 135 143 158
4 26 29 148 160
4 132 147 152 157
4 140 145 148 155
4 50 138 143 153
4 44 132 142 157
4 136 141 156 161
4 132 142 152 157
4 29 133 145 148
4 135 150 153 158
4 145 148 155 160
4 134 149 154 161
4 132 137 142 152
4 135 143 153 158
4 134 139 146 154
4 133 140 145 148
4 134 146 154 161
4 135 138 143 153
4 136 151 156 161
4 136 141 146 161
4 134 144 149 154
4 42 45 128 158
4 24 27 92 159
4 24 27 154 159
4 48 134 144 149
4 48 51 149 159
4 54 140 145 155
4 144 149 154 159
4 45 128 143 158
4 27 92 144 159
4 54 57 155 160
4 134 139 144 154
4 27 144 154 159
4 27 139 144 154
4 48 144 149 159
4 54 145 155 160
4 48 51 130 159
4 54 57 131 160
4 48 130 144 159
4 54 131 145 160
4 4 5 92 130
4 14 68 191 230
4 15 71 176 230
4 41 187 192 231
4 72 73 165 174
4 13 72 164 179
4 3 63 162 178
4 3 36 96 178
4 7 69 163 177
4 38 41 187 231
4 38 172 177 231
4 2 39 96 193
4 12 75 164 194
4 75 76 165 189
4 38 172 187 231
4 36 37 97 168
4 39 40 97 183
4 6 66 163 192
4 2 60 162 193
4 14 176 191 230
4 14 15 176 230
4 74 77 171 229
4 77 171 186 229
4 15 68 71 230
4 73 74 76 229
4 14 15 68 230
4 74 76 77 229
4 3 96 162 178
4 2 96 162 193
4 73 76 186 229
4 73 171 186 229
4 62 164 179 194
4 41 163 177 192
4 13 65 164 179
4 38 41 163 177
4 12 13 65 164
4 172 177 192 231
4 62 65 164 179
4 6 7 38 163
4 7 38 163 177
4 6 38 41 163
4 12 62 164 194
4 6 41 163 192
4 12 62 65 164
4 172 187 192 231
4 67 169 181 184
4 66 67 169 184
4 170 175 186 190
4 167 175 180 190
4 70 71 166 181
4 169 172 184 185
4 66 69 70 169
4 66 67 70 169
4 61 62 64 182
4 67 70 169 181
4 70 166 169 181
4 61 64 182 188
4 67 68 70 181
4 168 183 187 195
4 166 170 171 181
4 64 173 182 188
4 62 64 65 167
4 68 70 71 181
4 37 97 168 183
4 173 182 188 195
4 174 175 186 190
4 62 64 167 182
4 170 172 180 185
4 96 162 178 193
4 172 185 187 195
4 172 180 185 195
4 64 167 173 182
4 71 176 191 230
4 41 177 192 231
4 76 174 186 189
4 169 170 172 185
4 170 171 181 186
4 170 181 185 186
4 172 184 185 187
4 167 173 180 182
4 168 172 187 195
4 168 172 180 195
4 73 76 174 186
4 170 171 175 186
4 173 180 182 195
4 167 174 175 190
4 170 185 186 190
4 37 168 183 187
4 73 171 174 186
4 68 71 191 230
4 38 41 177 231
4 63 64 173 188
4 38 40 41 187
4 169 181 184 185
4 174 186 189 190
4 167 180 182 190
4 166 169 170 181
4 180 182 190 195
4 36 97 168 183
4 36 39 97 183
4 60 63 64 188
4 37 38 172 187
4 60 61 64 188
4 174 182 189 190
4 14 77 176 191
4 37 168 172 187
4 76 165 174 189
4 37 38 40 187
4 37 40 97 183
4 77 171 176 191
4 171 174 175 186
4 14 15 74 176
4 169 170 181 185
4 14 74 77 176
4 73 76 165 174
4 72 165 174 189
4 37 40 183 187
4 72 75 165 189
4 74 77 171 176
4 77 171 186 191
4 167 174 182 190
4 71 166 181 191
4 62 179 182 194
4 71 166 176 191
4 69 169 177 192
4 166 171 181 191
4 174 182 189 194
4 66 169 184 192
4 62 65 167 179
4 170 175 180 190
4 68 71 181 191
4 166 171 176 191
4 66 69 169 192
4 62 167 179 182
4 169 172 184 192
4 174 179 182 194
4 168 183 188 195
4 171 181 186 191
4 169 172 177 192
4 168 173 188 195
4 167 174 179 182
4 168 173 180 195
4 172 184 187 192
4 170 180 185 190
4 36 168 178 183
4 36 39 183 193
4 180 185 190 195
4 72 174 189 194
4 72 75 189 194
4 36 178 183 193
4 72 174 179 194
4 168 178 183 188
4 36 39 96 193
4 72 75 164 194
4 178 183 188 193
4 72 164 179 194
4 69 163 177 192
4 63 162 178 193
4 36 96 178 193
4 168 173 178 188
4 63 178 188 193
4 63 173 178 188
4 66 69 163 192
4 60 63 162 193
4 60 63 188 193
4 2 3 96 162
4 73 74 171 229
4 76 77 186 229
4 7 69 163 209
4 14 87 197 225
4 11 81 196 210
4 6 57 131 224
4 7 54 131 209
4 6 66 163 224
4 10 78 196 226
4 15 84 197 211
4 7 131 163 209
4 6 131 163 224
4 68 197 211 225
4 68 71 197 211
4 56 196 210 226
4 15 71 197 211
4 15 68 71 197
4 56 59 196 226
4 14 15 68 197
4 10 59 196 226
4 10 11 56 196
4 14 68 197 225
4 10 56 59 196
4 11 56 196 210
4 67 68 70 219
4 67 205 215 219
4 86 88 89 213
4 55 56 58 204
4 55 200 204 220
4 85 86 88 213
4 85 86 203 213
4 82 198 201 221
4 88 206 213 216
4 85 88 206 213
4 131 163 209 224
4 207 216 217 219
4 201 202 204 222
4 79 82 83 198
4 67 70 205 219
4 85 203 206 213
4 79 80 83 198
4 55 58 204 220
4 66 67 205 215
4 79 80 198 218
4 202 204 212 222
4 207 217 219 227
4 205 212 215 219
4 200 204 220 227
4 54 55 200 220
4 81 82 201 221
4 87 88 206 216
4 79 82 198 221
4 79 198 218 221
4 17 83 208 223
4 17 86 208 223
4 54 57 58 220
4 66 69 70 205
4 66 67 70 205
4 16 86 89 223
4 207 212 219 227
4 204 212 222 227
4 54 55 58 220
4 58 204 214 220
4 70 199 205 219
4 16 17 83 223
4 212 215 219 227
4 200 204 212 227
4 16 17 86 223
4 199 205 212 219
4 204 214 220 227
4 204 214 222 227
4 199 207 212 219
4 78 81 82 221
4 84 87 88 206
4 84 85 88 206
4 16 80 83 223
4 78 79 82 221
4 198 208 213 223
4 202 217 218 222
4 202 203 207 217
4 86 89 213 223
4 198 203 208 213
4 198 213 218 223
4 83 198 208 223
4 86 208 213 223
4 80 198 218 223
4 86 203 208 213
4 199 206 207 216
4 201 214 221 222
4 68 199 219 225
4 80 83 198 223
4 56 204 210 214
4 200 215 220 227
4 200 205 212 215
4 199 206 211 216
4 200 212 215 227
4 199 207 216 219
4 201 204 214 222
4 199 211 216 225
4 81 201 210 221
4 201 204 210 214
4 199 216 219 225
4 200 215 220 224
4 57 131 209 224
4 69 163 209 224
4 87 197 211 225
4 57 209 220 224
4 69 205 209 224
4 78 81 210 221
4 78 210 221 226
4 66 69 163 224
4 54 57 131 209
4 66 69 205 224
4 54 57 209 220
4 54 200 209 220
4 66 205 215 224
4 84 87 197 211
4 202 217 222 227
4 202 207 212 217
4 202 212 222 227
4 207 212 217 227
4 202 212 217 227
4 6 7 131 163
4 200 209 220 224
4 68 70 71 199
4 68 70 199 219
4 56 58 204 214
4 56 58 59 214
4 198 218 221 222
4 198 201 221 222
4 198 202 218 222
4 198 201 202 222
4 203 206 207 213
4 206 207 213 216
4 203 207 213 217
4 207 213 216 217
4 198 213 217 218
4 198 203 213 217
4 198 202 217 218
4 198 202 203 217
4 78 81 196 210
4 78 196 210 226
4 84 87 206 211
4 201 210 214 221
4 210 214 221 226
4 87 206 211 216
4 87 211 216 225
4 68 71 199 211
4 68 199 211 225
4 56 210 214 226
4 56 59 214 226
4 200 205 215 224
4 200 205 209 224
CELL_DATA 632 
SCALARS elemTag int 1
LOOKUP_TABLE default
1 
1 
1 
1 
1 
1 
1 
1 
1 
1 
1 
1 
1 
1 
1 
1 
1 
1 
1 
1 
1 
1 
1 
1 
1 
1 
1 
1 
1 
1 
1 
1 
1 
1 
1 
1 
1 
1 
1 
1 
1 
1 
1 
1 
1 
1 
1 
1 
1 
1 
1 
1 
1 
1 
1 
1 
1 
1 
1 
1 
1 
1 
1 
1 
1 
1 
1 
1 
1 
1 
1 
1 
1 
1 
1 
1 
1 
1 
1 
1 
1 
1 
1 
1 
1 
1 
1 
1 
1 
1 
1 
1 
1 
1 
1 
1 
1 
1 
1 
1 
1 
1 
1 
1 
1 
1 
1 
1 
1 
1 
1 
1 
1 
1 
1 
1 
1 
1 
1 
1 
1 
1 
1 
1 
1 
1 
1 
1 
1 
1 
1 
1 
1 
1 
1 
1 
1 
1 
1 
1 
1 
1 
1 
1 
1 
1 
1 
1 
1 
1 
1 
1 
1 
1 
1 
1 
1 
1 
1 
1 
1 
1 
2 
2 
2 
2 
2 
2 
2 
2 
2 
2 
2 
2 
2 
2 
2 
2 
2 
2 
2 
2 
2 
2 
2 
2 
2 
2 
2 
2 
2 
2 
2 
2 
2 
2 
2 
2 
2 
2 
2 
2 
2 
2 
2 
2 
2 
2 
2 
2 
2 
2 
2 
2 
2 
2 
2 
2 
2 
2 
2 
2 
2 
2 
2 
2 
2 
2 
2 
2 
2 
2 
2 
2 
2 
2 
2 
2 
2 
2 
2 
2 
2 
2 
2 
2 
2 
2 
2 
2 
2 
2 
2 
2 
2 
2 
2 
2 
2 
2 
2 
2 
2 
2 
2 
2 
2 
2 
2 
2 
2 
2 
2 
2 
2 
2 
2 
2 
2 
2 
2 
2 
2 
2 
2 
2 
2 
2 
2 
2 
2 
2 
2 
2 
2 
2 
2 
2 
2 
2 
2 
2 
2 
2 
2 
2 
2 
2 
2 
2 
2 
2 
2 
2 
3 
3 
3 
3 
3 
3 
3 
3 
3 
3 
3 
3 
3 
3 
3 
3 
3 
3 
3 
3 
3 
3 
3 
3 
3 
3 
3 
3 
3 
3 
3 
3 
3 
3 
3 
3 
3 
3 
3 
3 
3 
3 
3 
3 
3 
3 
3 
3 
3 
3 
3 
3 
3 
3 
3 
3 
3 
3 
3 
3 
3 
3 
3 
3 
3 
3 
3 
3 
3 
3 
3 
3 
3 
3 
3 
3 
3 
3 
3 
3 
3 
3 
3 
3 
3 
3 
3 
3 
3 
3 
3 
3 
3 
3 
3 
3 
3 
3 
3 
3 
3 
3 
3 
3 
3 
3 
3 
3 
3 
3 
3 
3 
3 
3 
3 
3 
3 
3 
3 
3 
3 
3 
3 
3 
3 
3 
3 
3 
3 
3 
3 
3 
3 
3 
3 
3 
3 
3 
3 
3 
3 
3 
3 
3 
3 
3 
3 
3 
3 
3 
3 
3 
3 
3 
3 
3 
3 
3 
3 
3 
3 
3 
3 
3 
3 
3 
3 
4 
4 
4 
4 
4 
4 
4 
4 
4 
4 
4 
4 
4 
4 
4 
4 
4 
4 
4 
4 
4 
4 
4 
4 
4 
4 
4 
4 
4 
4 
4 
4 
4 
4 
4 
4 
4 
4 
4 
4 
4 
4 
4 
4 
4 
4 
4 
4 
4 
4 
4 
4 
4 
4 
4 
4 
4 
4 
4 
4 
4 
4 
4 
4 
4 
4 
4 
4 
4 
4 
4 
4 
4 
4 
4 
4 
4 
4 
4 
4 
4 
4 
4 
4 
4 
4 
4 
4 
4 
4 
4 
4 
4 
4 
4 
4 
4 
4 
4 
4 
4 
4 
4 
4 
4 
4 
4 
4 
4 
4 
4 
4 
4 
4 
4 
4 
4 
4 
4 
4 
4 
4 
4 
4 
4 
4 
4 
4 
4 
4 
4 
4 
4 
4 
4 
4 
4 
4 
4 
4 
4 
4 
4 
4 
4 
4 
4 
4 
4 
4 
4 
POINT_DATA 232 
SCALARS phi double 1
LOOKUP_TABLE default
300000.000000 
300000.000000 
440155.562500 
439371.187480 
-1.000000 
-1.000000 
300000.000000 
300000.000000 
-1.000000 
-1.000000 
300000.000000 
300000.000000 
-1.000000 
-1.000000 
-1.000000 
-1.000000 
-1.000000 
-1.000000 
317198.187500 
347075.593750 
388106.468750 
317198.187500 
347075.593750 
388106.468750 
75000.000000 
150000.000000 
225000.000000 
75000.000000 
150000.000000 
225000.000000 
225000.000000 
150000.000000 
75000.000000 
225000.000000 
150000.000000 
75000.000000 
389948.808346 
347499.000000 
317443.750000 
389948.808346 
347499.000000 
317443.750000 
75000.000000 
150000.000000 
225000.000000 
75000.000000 
150000.000000 
225000.000000 
-1.000000 
-1.000000 
-1.000000 
-1.000000 
-1.000000 
-1.000000 
300000.000000 
300000.000000 
300000.000000 
300000.000000 
300000.000000 
300000.000000 
-1.000000 
-1.000000 
-1.000000 
-1.000000 
-1.000000 
-1.000000 
375000.000000 
450000.000000 
525000.000000 
375000.000000 
450000.000000 
525000.000000 
-1.000000 
-1.000000 
-1.000000 
-1.000000 
-1.000000 
-1.000000 
375000.000000 
450000.000000 
525000.000000 
375000.000000 
450000.000000 
525000.000000 
-1.000000 
-1.000000 
-1.000000 
-1.000000 
-1.000000 
-1.000000 
308387.781250 
332137.000000 
37500.000000 
112500.000000 
262500.000000 
187500.000000 
414572.687500 
368650.156250 
205893.125000 
318007.468750 
134394.562500 
205068.125000 
207428.750000 
132024.953125 
271605.593750 
269905.093750 
271663.425295 
330144.093750 
77645.713531 
258732.093750 
364473.531250 
265742.187500 
265892.875000 
205893.125000 
318007.468750 
134394.562500 
205068.125000 
207428.750000 
132024.953125 
271605.593750 
269905.093750 
271663.425295 
330144.093750 
77645.713531 
258732.093750 
365283.500000 
265742.187500 
265892.875000 
37500.000000 
112500.000000 
-1.000000 
300198.656250 
184599.375000 
185127.515625 
59302.968750 
112641.625000 
149079.515625 
230862.078125 
67058.531250 
107706.992188 
245548.640625 
186789.343750 
245096.203125 
54903.812500 
54903.812500 
245547.609375 
121907.648438 
184599.375000 
185127.515625 
59302.968750 
112641.625000 
149079.515625 
230862.078125 
67058.531250 
107706.992188 
245548.640625 
186789.343750 
245096.203125 
54903.812500 
54903.812500 
245547.609375 
121907.648438 
-1.000000 
337500.000000 
-1.000000 
-1.000000 
495246.593750 
-1.000000 
420309.086105 
424446.312500 
475763.562500 
-1.000000 
396077.437500 
489444.625000 
-1.000000 
-1.000000 
-1.000000 
366167.875000 
465374.031250 
-1.000000 
471961.125000 
495246.593750 
-1.000000 
420309.086105 
424446.312500 
475763.562500 
-1.000000 
396077.437500 
489444.625000 
-1.000000 
-1.000000 
-1.000000 
366167.875000 
465374.031250 
-1.000000 
471961.125000 
337500.000000 
-1.000000 
484599.375000 
485127.531250 
359302.968750 
412641.625000 
449079.531250 
530862.125000 
367058.531250 
407707.000000 
-1.000000 
486789.343750 
-1.000000 
354903.812500 
354903.812500 
-1.000000 
421907.656250 
-1.000000 
367711.437500 
407757.062500 
-1.000000 
478572.343750 
481728.937500 
482091.281250 
358393.375000 
410638.093750 
429580.187500 
-1.000000 
354903.812500 
-1.000000 
354452.375000 
419987.875000 
338098.718750 
-1.000000 
-1.000000 
358805.281250 
SCALARS states double 1
LOOKUP_TABLE default
4.000000 
4.000000 
4.000000 
4.000000 
0.000000 
0.000000 
4.000000 
4.000000 
0.000000 
0.000000 
4.000000 
4.000000 
0.000000 
0.000000 
0.000000 
0.000000 
0.000000 
0.000000 
4.000000 
4.000000 
4.000000 
4.000000 
4.000000 
4.000000 
5.000000 
5.000000 
4.000000 
5.000000 
5.000000 
4.000000 
4.000000 
5.000000 
5.000000 
4.000000 
5.000000 
5.000000 
4.000000 
4.000000 
4.000000 
4.000000 
4.000000 
4.000000 
5.000000 
5.000000 
4.000000 
5.000000 
5.000000 
4.000000 
0.000000 
0.000000 
0.000000 
0.000000 
0.000000 
0.000000 
4.000000 
4.000000 
4.000000 
4.000000 
4.000000 
4.000000 
0.000000 
0.000000 
0.000000 
0.000000 
0.000000 
0.000000 
4.000000 
4.000000 
3.000000 
4.000000 
4.000000 
3.000000 
0.000000 
0.000000 
0.000000 
0.000000 
0.000000 
0.000000 
4.000000 
4.000000 
3.000000 
4.000000 
4.000000 
3.000000 
0.000000 
0.000000 
0.000000 
0.000000 
0.000000 
0.000000 
4.000000 
4.000000 
5.000000 
5.000000 
4.000000 
4.000000 
4.000000 
4.000000 
4.000000 
4.000000 
5.000000 
4.000000 
4.000000 
5.000000 
4.000000 
4.000000 
4.000000 
4.000000 
5.000000 
4.000000 
4.000000 
4.000000 
4.000000 
4.000000 
4.000000 
5.000000 
4.000000 
4.000000 
5.000000 
4.000000 
4.000000 
4.000000 
4.000000 
5.000000 
4.000000 
4.000000 
4.000000 
4.000000 
5.000000 
5.000000 
0.000000 
4.000000 
4.000000 
4.000000 
5.000000 
5.000000 
5.000000 
4.000000 
5.000000 
5.000000 
4.000000 
4.000000 
4.000000 
5.000000 
5.000000 
4.000000 
5.000000 
4.000000 
4.000000 
5.000000 
5.000000 
5.000000 
4.000000 
5.000000 
5.000000 
4.000000 
4.000000 
4.000000 
5.000000 
5.000000 
4.000000 
5.000000 
0.000000 
4.000000 
0.000000 
0.000000 
3.000000 
0.000000 
4.000000 
4.000000 
3.000000 
0.000000 
4.000000 
3.000000 
0.000000 
0.000000 
0.000000 
4.000000 
3.000000 
0.000000 
3.000000 
3.000000 
0.000000 
4.000000 
4.000000 
3.000000 
0.000000 
4.000000 
3.000000 
0.000000 
0.000000 
0.000000 
4.000000 
3.000000 
0.000000 
3.000000 
4.000000 
0.000000 
3.000000 
3.000000 
4.000000 
4.000000 
4.000000 
3.000000 
4.000000 
4.000000 
0.000000 
3.000000 
0.000000 
4.000000 
4.000000 
0.000000 
4.000000 
0.000000 
4.000000 
4.000000 
0.000000 
3.000000 
3.000000 
3.000000 
4.000000 
4.000000 
4.000000 
0.000000 
4.000000 
0.000000 
4.000000 
4.000000 
4.000000 
0.000000 
0.000000 
4.000000 
